ITEM: TIMESTEP
0
ITEM: NUMBER OF ATOMS
69580
ITEM: BOX BOUNDS ss ss ss
-1.22802 599.276
0 300.616
0 0
ITEM: ATOMS id type xu yu zu
 1 1 0 0 0
 2 1 -1.22802 0.709 0
 3 1 -1.22802 2.127 0
 4 1 0 2.836 0
 5 1 2.45605 0 0
 6 1 1.22802 0.709 0
 7 1 1.22802 2.127 0
 8 1 2.45605 2.836 0
 9 1 4.9121 0 0
 10 1 3.68407 0.709 0
 11 1 3.68407 2.127 0
 12 1 4.9121 2.836 0
 13 1 7.36814 0 0
 14 1 6.14012 0.709 0
 15 1 6.14012 2.127 0
 16 1 7.36814 2.836 0
 17 1 9.82419 0 0
 18 1 8.59617 0.709 0
 19 1 8.59617 2.127 0
 20 1 9.82419 2.836 0
 21 1 12.2802 0 0
 22 1 11.0522 0.709 0
 23 1 11.0522 2.127 0
 24 1 12.2802 2.836 0
 25 1 14.7363 0 0
 26 1 13.5083 0.709 0
 27 1 13.5083 2.127 0
 28 1 14.7363 2.836 0
 29 1 17.1923 0 0
 30 1 15.9643 0.709 0
 31 1 15.9643 2.127 0
 32 1 17.1923 2.836 0
 33 1 19.6484 0 0
 34 1 18.4204 0.709 0
 35 1 18.4204 2.127 0
 36 1 19.6484 2.836 0
 37 1 22.1044 0 0
 38 1 20.8764 0.709 0
 39 1 20.8764 2.127 0
 40 1 22.1044 2.836 0
 41 1 24.5605 0 0
 42 1 23.3325 0.709 0
 43 1 23.3325 2.127 0
 44 1 24.5605 2.836 0
 45 1 27.0165 0 0
 46 1 25.7885 0.709 0
 47 1 25.7885 2.127 0
 48 1 27.0165 2.836 0
 49 1 29.4726 0 0
 50 1 28.2446 0.709 0
 51 1 28.2446 2.127 0
 52 1 29.4726 2.836 0
 53 1 31.9286 0 0
 54 1 30.7006 0.709 0
 55 1 30.7006 2.127 0
 56 1 31.9286 2.836 0
 57 1 34.3847 0 0
 58 1 33.1566 0.709 0
 59 1 33.1566 2.127 0
 60 1 34.3847 2.836 0
 61 1 36.8407 0 0
 62 1 35.6127 0.709 0
 63 1 35.6127 2.127 0
 64 1 36.8407 2.836 0
 65 1 39.2968 0 0
 66 1 38.0687 0.709 0
 67 1 38.0687 2.127 0
 68 1 39.2968 2.836 0
 69 1 41.7528 0 0
 70 1 40.5248 0.709 0
 71 1 40.5248 2.127 0
 72 1 41.7528 2.836 0
 73 1 44.2089 0 0
 74 1 42.9808 0.709 0
 75 1 42.9808 2.127 0
 76 1 44.2089 2.836 0
 77 1 46.6649 0 0
 78 1 45.4369 0.709 0
 79 1 45.4369 2.127 0
 80 1 46.6649 2.836 0
 81 1 49.121 0 0
 82 1 47.8929 0.709 0
 83 1 47.8929 2.127 0
 84 1 49.121 2.836 0
 85 1 51.577 0 0
 86 1 50.349 0.709 0
 87 1 50.349 2.127 0
 88 1 51.577 2.836 0
 89 1 54.0331 0 0
 90 1 52.805 0.709 0
 91 1 52.805 2.127 0
 92 1 54.0331 2.836 0
 93 1 56.4891 0 0
 94 1 55.2611 0.709 0
 95 1 55.2611 2.127 0
 96 1 56.4891 2.836 0
 97 1 58.9452 0 0
 98 1 57.7171 0.709 0
 99 1 57.7171 2.127 0
 100 1 58.9452 2.836 0
 101 1 61.4012 0 0
 102 1 60.1732 0.709 0
 103 1 60.1732 2.127 0
 104 1 61.4012 2.836 0
 105 1 63.8573 0 0
 106 1 62.6292 0.709 0
 107 1 62.6292 2.127 0
 108 1 63.8573 2.836 0
 109 1 66.3133 0 0
 110 1 65.0853 0.709 0
 111 1 65.0853 2.127 0
 112 1 66.3133 2.836 0
 113 1 68.7693 0 0
 114 1 67.5413 0.709 0
 115 1 67.5413 2.127 0
 116 1 68.7693 2.836 0
 117 1 71.2254 0 0
 118 1 69.9974 0.709 0
 119 1 69.9974 2.127 0
 120 1 71.2254 2.836 0
 121 1 73.6814 0 0
 122 1 72.4534 0.709 0
 123 1 72.4534 2.127 0
 124 1 73.6814 2.836 0
 125 1 76.1375 0 0
 126 1 74.9095 0.709 0
 127 1 74.9095 2.127 0
 128 1 76.1375 2.836 0
 129 1 78.5935 0 0
 130 1 77.3655 0.709 0
 131 1 77.3655 2.127 0
 132 1 78.5935 2.836 0
 133 1 81.0496 0 0
 134 1 79.8216 0.709 0
 135 1 79.8216 2.127 0
 136 1 81.0496 2.836 0
 137 1 83.5056 0 0
 138 1 82.2776 0.709 0
 139 1 82.2776 2.127 0
 140 1 83.5056 2.836 0
 141 1 85.9617 0 0
 142 1 84.7337 0.709 0
 143 1 84.7337 2.127 0
 144 1 85.9617 2.836 0
 145 1 88.4177 0 0
 146 1 87.1897 0.709 0
 147 1 87.1897 2.127 0
 148 1 88.4177 2.836 0
 149 1 90.8738 0 0
 150 1 89.6458 0.709 0
 151 1 89.6458 2.127 0
 152 1 90.8738 2.836 0
 153 1 93.3298 0 0
 154 1 92.1018 0.709 0
 155 1 92.1018 2.127 0
 156 1 93.3298 2.836 0
 157 1 95.7859 0 0
 158 1 94.5578 0.709 0
 159 1 94.5578 2.127 0
 160 1 95.7859 2.836 0
 161 1 98.2419 0 0
 162 1 97.0139 0.709 0
 163 1 97.0139 2.127 0
 164 1 98.2419 2.836 0
 165 1 100.698 0 0
 166 1 99.4699 0.709 0
 167 1 99.4699 2.127 0
 168 1 100.698 2.836 0
 169 1 103.154 0 0
 170 1 101.926 0.709 0
 171 1 101.926 2.127 0
 172 1 103.154 2.836 0
 173 1 105.61 0 0
 174 1 104.382 0.709 0
 175 1 104.382 2.127 0
 176 1 105.61 2.836 0
 177 1 108.066 0 0
 178 1 106.838 0.709 0
 179 1 106.838 2.127 0
 180 1 108.066 2.836 0
 181 1 110.522 0 0
 182 1 109.294 0.709 0
 183 1 109.294 2.127 0
 184 1 110.522 2.836 0
 185 1 112.978 0 0
 186 1 111.75 0.709 0
 187 1 111.75 2.127 0
 188 1 112.978 2.836 0
 189 1 115.434 0 0
 190 1 114.206 0.709 0
 191 1 114.206 2.127 0
 192 1 115.434 2.836 0
 193 1 117.89 0 0
 194 1 116.662 0.709 0
 195 1 116.662 2.127 0
 196 1 117.89 2.836 0
 197 1 120.346 0 0
 198 1 119.118 0.709 0
 199 1 119.118 2.127 0
 200 1 120.346 2.836 0
 201 1 122.802 0 0
 202 1 121.574 0.709 0
 203 1 121.574 2.127 0
 204 1 122.802 2.836 0
 205 1 125.258 0 0
 206 1 124.03 0.709 0
 207 1 124.03 2.127 0
 208 1 125.258 2.836 0
 209 1 127.715 0 0
 210 1 126.486 0.709 0
 211 1 126.486 2.127 0
 212 1 127.715 2.836 0
 213 1 130.171 0 0
 214 1 128.943 0.709 0
 215 1 128.943 2.127 0
 216 1 130.171 2.836 0
 217 1 132.627 0 0
 218 1 131.399 0.709 0
 219 1 131.399 2.127 0
 220 1 132.627 2.836 0
 221 1 135.083 0 0
 222 1 133.855 0.709 0
 223 1 133.855 2.127 0
 224 1 135.083 2.836 0
 225 1 137.539 0 0
 226 1 136.311 0.709 0
 227 1 136.311 2.127 0
 228 1 137.539 2.836 0
 229 1 139.995 0 0
 230 1 138.767 0.709 0
 231 1 138.767 2.127 0
 232 1 139.995 2.836 0
 233 1 142.451 0 0
 234 1 141.223 0.709 0
 235 1 141.223 2.127 0
 236 1 142.451 2.836 0
 237 1 144.907 0 0
 238 1 143.679 0.709 0
 239 1 143.679 2.127 0
 240 1 144.907 2.836 0
 241 1 147.363 0 0
 242 1 146.135 0.709 0
 243 1 146.135 2.127 0
 244 1 147.363 2.836 0
 245 1 149.819 0 0
 246 1 148.591 0.709 0
 247 1 148.591 2.127 0
 248 1 149.819 2.836 0
 249 1 152.275 0 0
 250 1 151.047 0.709 0
 251 1 151.047 2.127 0
 252 1 152.275 2.836 0
 253 1 154.731 0 0
 254 1 153.503 0.709 0
 255 1 153.503 2.127 0
 256 1 154.731 2.836 0
 257 1 157.187 0 0
 258 1 155.959 0.709 0
 259 1 155.959 2.127 0
 260 1 157.187 2.836 0
 261 1 159.643 0 0
 262 1 158.415 0.709 0
 263 1 158.415 2.127 0
 264 1 159.643 2.836 0
 265 1 162.099 0 0
 266 1 160.871 0.709 0
 267 1 160.871 2.127 0
 268 1 162.099 2.836 0
 269 1 164.555 0 0
 270 1 163.327 0.709 0
 271 1 163.327 2.127 0
 272 1 164.555 2.836 0
 273 1 167.011 0 0
 274 1 165.783 0.709 0
 275 1 165.783 2.127 0
 276 1 167.011 2.836 0
 277 1 169.467 0 0
 278 1 168.239 0.709 0
 279 1 168.239 2.127 0
 280 1 169.467 2.836 0
 281 1 171.923 0 0
 282 1 170.695 0.709 0
 283 1 170.695 2.127 0
 284 1 171.923 2.836 0
 285 1 174.379 0 0
 286 1 173.151 0.709 0
 287 1 173.151 2.127 0
 288 1 174.379 2.836 0
 289 1 176.835 0 0
 290 1 175.607 0.709 0
 291 1 175.607 2.127 0
 292 1 176.835 2.836 0
 293 1 179.292 0 0
 294 1 178.063 0.709 0
 295 1 178.063 2.127 0
 296 1 179.292 2.836 0
 297 1 181.748 0 0
 298 1 180.52 0.709 0
 299 1 180.52 2.127 0
 300 1 181.748 2.836 0
 301 1 184.204 0 0
 302 1 182.976 0.709 0
 303 1 182.976 2.127 0
 304 1 184.204 2.836 0
 305 1 186.66 0 0
 306 1 185.432 0.709 0
 307 1 185.432 2.127 0
 308 1 186.66 2.836 0
 309 1 189.116 0 0
 310 1 187.888 0.709 0
 311 1 187.888 2.127 0
 312 1 189.116 2.836 0
 313 1 191.572 0 0
 314 1 190.344 0.709 0
 315 1 190.344 2.127 0
 316 1 191.572 2.836 0
 317 1 194.028 0 0
 318 1 192.8 0.709 0
 319 1 192.8 2.127 0
 320 1 194.028 2.836 0
 321 1 196.484 0 0
 322 1 195.256 0.709 0
 323 1 195.256 2.127 0
 324 1 196.484 2.836 0
 325 1 198.94 0 0
 326 1 197.712 0.709 0
 327 1 197.712 2.127 0
 328 1 198.94 2.836 0
 329 1 201.396 0 0
 330 1 200.168 0.709 0
 331 1 200.168 2.127 0
 332 1 201.396 2.836 0
 333 1 203.852 0 0
 334 1 202.624 0.709 0
 335 1 202.624 2.127 0
 336 1 203.852 2.836 0
 337 1 206.308 0 0
 338 1 205.08 0.709 0
 339 1 205.08 2.127 0
 340 1 206.308 2.836 0
 341 1 208.764 0 0
 342 1 207.536 0.709 0
 343 1 207.536 2.127 0
 344 1 208.764 2.836 0
 345 1 211.22 0 0
 346 1 209.992 0.709 0
 347 1 209.992 2.127 0
 348 1 211.22 2.836 0
 349 1 213.676 0 0
 350 1 212.448 0.709 0
 351 1 212.448 2.127 0
 352 1 213.676 2.836 0
 353 1 216.132 0 0
 354 1 214.904 0.709 0
 355 1 214.904 2.127 0
 356 1 216.132 2.836 0
 357 1 218.588 0 0
 358 1 217.36 0.709 0
 359 1 217.36 2.127 0
 360 1 218.588 2.836 0
 361 1 221.044 0 0
 362 1 219.816 0.709 0
 363 1 219.816 2.127 0
 364 1 221.044 2.836 0
 365 1 223.5 0 0
 366 1 222.272 0.709 0
 367 1 222.272 2.127 0
 368 1 223.5 2.836 0
 369 1 225.956 0 0
 370 1 224.728 0.709 0
 371 1 224.728 2.127 0
 372 1 225.956 2.836 0
 373 1 228.412 0 0
 374 1 227.184 0.709 0
 375 1 227.184 2.127 0
 376 1 228.412 2.836 0
 377 1 230.869 0 0
 378 1 229.64 0.709 0
 379 1 229.64 2.127 0
 380 1 230.869 2.836 0
 381 1 233.325 0 0
 382 1 232.097 0.709 0
 383 1 232.097 2.127 0
 384 1 233.325 2.836 0
 385 1 235.781 0 0
 386 1 234.553 0.709 0
 387 1 234.553 2.127 0
 388 1 235.781 2.836 0
 389 1 238.237 0 0
 390 1 237.009 0.709 0
 391 1 237.009 2.127 0
 392 1 238.237 2.836 0
 393 1 240.693 0 0
 394 1 239.465 0.709 0
 395 1 239.465 2.127 0
 396 1 240.693 2.836 0
 397 1 243.149 0 0
 398 1 241.921 0.709 0
 399 1 241.921 2.127 0
 400 1 243.149 2.836 0
 401 1 245.605 0 0
 402 1 244.377 0.709 0
 403 1 244.377 2.127 0
 404 1 245.605 2.836 0
 405 1 248.061 0 0
 406 1 246.833 0.709 0
 407 1 246.833 2.127 0
 408 1 248.061 2.836 0
 409 1 250.517 0 0
 410 1 249.289 0.709 0
 411 1 249.289 2.127 0
 412 1 250.517 2.836 0
 413 1 252.973 0 0
 414 1 251.745 0.709 0
 415 1 251.745 2.127 0
 416 1 252.973 2.836 0
 417 1 255.429 0 0
 418 1 254.201 0.709 0
 419 1 254.201 2.127 0
 420 1 255.429 2.836 0
 421 1 257.885 0 0
 422 1 256.657 0.709 0
 423 1 256.657 2.127 0
 424 1 257.885 2.836 0
 425 1 260.341 0 0
 426 1 259.113 0.709 0
 427 1 259.113 2.127 0
 428 1 260.341 2.836 0
 429 1 262.797 0 0
 430 1 261.569 0.709 0
 431 1 261.569 2.127 0
 432 1 262.797 2.836 0
 433 1 265.253 0 0
 434 1 264.025 0.709 0
 435 1 264.025 2.127 0
 436 1 265.253 2.836 0
 437 1 267.709 0 0
 438 1 266.481 0.709 0
 439 1 266.481 2.127 0
 440 1 267.709 2.836 0
 441 1 270.165 0 0
 442 1 268.937 0.709 0
 443 1 268.937 2.127 0
 444 1 270.165 2.836 0
 445 1 272.621 0 0
 446 1 271.393 0.709 0
 447 1 271.393 2.127 0
 448 1 272.621 2.836 0
 449 1 275.077 0 0
 450 1 273.849 0.709 0
 451 1 273.849 2.127 0
 452 1 275.077 2.836 0
 453 1 277.533 0 0
 454 1 276.305 0.709 0
 455 1 276.305 2.127 0
 456 1 277.533 2.836 0
 457 1 279.989 0 0
 458 1 278.761 0.709 0
 459 1 278.761 2.127 0
 460 1 279.989 2.836 0
 461 1 282.446 0 0
 462 1 281.217 0.709 0
 463 1 281.217 2.127 0
 464 1 282.446 2.836 0
 465 1 284.902 0 0
 466 1 283.674 0.709 0
 467 1 283.674 2.127 0
 468 1 284.902 2.836 0
 469 1 287.358 0 0
 470 1 286.13 0.709 0
 471 1 286.13 2.127 0
 472 1 287.358 2.836 0
 473 1 289.814 0 0
 474 1 288.586 0.709 0
 475 1 288.586 2.127 0
 476 1 289.814 2.836 0
 477 1 292.27 0 0
 478 1 291.042 0.709 0
 479 1 291.042 2.127 0
 480 1 292.27 2.836 0
 481 1 294.726 0 0
 482 1 293.498 0.709 0
 483 1 293.498 2.127 0
 484 1 294.726 2.836 0
 485 1 297.182 0 0
 486 1 295.954 0.709 0
 487 1 295.954 2.127 0
 488 1 297.182 2.836 0
 489 1 299.638 0 0
 490 1 298.41 0.709 0
 491 1 298.41 2.127 0
 492 1 299.638 2.836 0
 493 1 302.094 0 0
 494 1 300.866 0.709 0
 495 1 300.866 2.127 0
 496 1 302.094 2.836 0
 497 1 304.55 0 0
 498 1 303.322 0.709 0
 499 1 303.322 2.127 0
 500 1 304.55 2.836 0
 501 1 307.006 0 0
 502 1 305.778 0.709 0
 503 1 305.778 2.127 0
 504 1 307.006 2.836 0
 505 1 309.462 0 0
 506 1 308.234 0.709 0
 507 1 308.234 2.127 0
 508 1 309.462 2.836 0
 509 1 311.918 0 0
 510 1 310.69 0.709 0
 511 1 310.69 2.127 0
 512 1 311.918 2.836 0
 513 1 314.374 0 0
 514 1 313.146 0.709 0
 515 1 313.146 2.127 0
 516 1 314.374 2.836 0
 517 1 316.83 0 0
 518 1 315.602 0.709 0
 519 1 315.602 2.127 0
 520 1 316.83 2.836 0
 521 1 319.286 0 0
 522 1 318.058 0.709 0
 523 1 318.058 2.127 0
 524 1 319.286 2.836 0
 525 1 321.742 0 0
 526 1 320.514 0.709 0
 527 1 320.514 2.127 0
 528 1 321.742 2.836 0
 529 1 324.198 0 0
 530 1 322.97 0.709 0
 531 1 322.97 2.127 0
 532 1 324.198 2.836 0
 533 1 326.654 0 0
 534 1 325.426 0.709 0
 535 1 325.426 2.127 0
 536 1 326.654 2.836 0
 537 1 329.11 0 0
 538 1 327.882 0.709 0
 539 1 327.882 2.127 0
 540 1 329.11 2.836 0
 541 1 331.566 0 0
 542 1 330.338 0.709 0
 543 1 330.338 2.127 0
 544 1 331.566 2.836 0
 545 1 334.023 0 0
 546 1 332.795 0.709 0
 547 1 332.795 2.127 0
 548 1 334.023 2.836 0
 549 1 336.479 0 0
 550 1 335.251 0.709 0
 551 1 335.251 2.127 0
 552 1 336.479 2.836 0
 553 1 338.935 0 0
 554 1 337.707 0.709 0
 555 1 337.707 2.127 0
 556 1 338.935 2.836 0
 557 1 341.391 0 0
 558 1 340.163 0.709 0
 559 1 340.163 2.127 0
 560 1 341.391 2.836 0
 561 1 343.847 0 0
 562 1 342.619 0.709 0
 563 1 342.619 2.127 0
 564 1 343.847 2.836 0
 565 1 346.303 0 0
 566 1 345.075 0.709 0
 567 1 345.075 2.127 0
 568 1 346.303 2.836 0
 569 1 348.759 0 0
 570 1 347.531 0.709 0
 571 1 347.531 2.127 0
 572 1 348.759 2.836 0
 573 1 351.215 0 0
 574 1 349.987 0.709 0
 575 1 349.987 2.127 0
 576 1 351.215 2.836 0
 577 1 353.671 0 0
 578 1 352.443 0.709 0
 579 1 352.443 2.127 0
 580 1 353.671 2.836 0
 581 1 356.127 0 0
 582 1 354.899 0.709 0
 583 1 354.899 2.127 0
 584 1 356.127 2.836 0
 585 1 358.583 0 0
 586 1 357.355 0.709 0
 587 1 357.355 2.127 0
 588 1 358.583 2.836 0
 589 1 361.039 0 0
 590 1 359.811 0.709 0
 591 1 359.811 2.127 0
 592 1 361.039 2.836 0
 593 1 363.495 0 0
 594 1 362.267 0.709 0
 595 1 362.267 2.127 0
 596 1 363.495 2.836 0
 597 1 365.951 0 0
 598 1 364.723 0.709 0
 599 1 364.723 2.127 0
 600 1 365.951 2.836 0
 601 1 368.407 0 0
 602 1 367.179 0.709 0
 603 1 367.179 2.127 0
 604 1 368.407 2.836 0
 605 1 370.863 0 0
 606 1 369.635 0.709 0
 607 1 369.635 2.127 0
 608 1 370.863 2.836 0
 609 1 373.319 0 0
 610 1 372.091 0.709 0
 611 1 372.091 2.127 0
 612 1 373.319 2.836 0
 613 1 375.775 0 0
 614 1 374.547 0.709 0
 615 1 374.547 2.127 0
 616 1 375.775 2.836 0
 617 1 378.231 0 0
 618 1 377.003 0.709 0
 619 1 377.003 2.127 0
 620 1 378.231 2.836 0
 621 1 380.687 0 0
 622 1 379.459 0.709 0
 623 1 379.459 2.127 0
 624 1 380.687 2.836 0
 625 1 383.143 0 0
 626 1 381.915 0.709 0
 627 1 381.915 2.127 0
 628 1 383.143 2.836 0
 629 1 385.6 0 0
 630 1 384.372 0.709 0
 631 1 384.372 2.127 0
 632 1 385.6 2.836 0
 633 1 388.056 0 0
 634 1 386.828 0.709 0
 635 1 386.828 2.127 0
 636 1 388.056 2.836 0
 637 1 390.512 0 0
 638 1 389.284 0.709 0
 639 1 389.284 2.127 0
 640 1 390.512 2.836 0
 641 1 392.968 0 0
 642 1 391.74 0.709 0
 643 1 391.74 2.127 0
 644 1 392.968 2.836 0
 645 1 395.424 0 0
 646 1 394.196 0.709 0
 647 1 394.196 2.127 0
 648 1 395.424 2.836 0
 649 1 397.88 0 0
 650 1 396.652 0.709 0
 651 1 396.652 2.127 0
 652 1 397.88 2.836 0
 653 1 400.336 0 0
 654 1 399.108 0.709 0
 655 1 399.108 2.127 0
 656 1 400.336 2.836 0
 657 1 402.792 0 0
 658 1 401.564 0.709 0
 659 1 401.564 2.127 0
 660 1 402.792 2.836 0
 661 1 405.248 0 0
 662 1 404.02 0.709 0
 663 1 404.02 2.127 0
 664 1 405.248 2.836 0
 665 1 407.704 0 0
 666 1 406.476 0.709 0
 667 1 406.476 2.127 0
 668 1 407.704 2.836 0
 669 1 410.16 0 0
 670 1 408.932 0.709 0
 671 1 408.932 2.127 0
 672 1 410.16 2.836 0
 673 1 412.616 0 0
 674 1 411.388 0.709 0
 675 1 411.388 2.127 0
 676 1 412.616 2.836 0
 677 1 415.072 0 0
 678 1 413.844 0.709 0
 679 1 413.844 2.127 0
 680 1 415.072 2.836 0
 681 1 417.528 0 0
 682 1 416.3 0.709 0
 683 1 416.3 2.127 0
 684 1 417.528 2.836 0
 685 1 419.984 0 0
 686 1 418.756 0.709 0
 687 1 418.756 2.127 0
 688 1 419.984 2.836 0
 689 1 422.44 0 0
 690 1 421.212 0.709 0
 691 1 421.212 2.127 0
 692 1 422.44 2.836 0
 693 1 424.896 0 0
 694 1 423.668 0.709 0
 695 1 423.668 2.127 0
 696 1 424.896 2.836 0
 697 1 427.352 0 0
 698 1 426.124 0.709 0
 699 1 426.124 2.127 0
 700 1 427.352 2.836 0
 701 1 429.808 0 0
 702 1 428.58 0.709 0
 703 1 428.58 2.127 0
 704 1 429.808 2.836 0
 705 1 432.264 0 0
 706 1 431.036 0.709 0
 707 1 431.036 2.127 0
 708 1 432.264 2.836 0
 709 1 434.72 0 0
 710 1 433.492 0.709 0
 711 1 433.492 2.127 0
 712 1 434.72 2.836 0
 713 1 437.177 0 0
 714 1 435.949 0.709 0
 715 1 435.949 2.127 0
 716 1 437.177 2.836 0
 717 1 439.633 0 0
 718 1 438.405 0.709 0
 719 1 438.405 2.127 0
 720 1 439.633 2.836 0
 721 1 442.089 0 0
 722 1 440.861 0.709 0
 723 1 440.861 2.127 0
 724 1 442.089 2.836 0
 725 1 444.545 0 0
 726 1 443.317 0.709 0
 727 1 443.317 2.127 0
 728 1 444.545 2.836 0
 729 1 447.001 0 0
 730 1 445.773 0.709 0
 731 1 445.773 2.127 0
 732 1 447.001 2.836 0
 733 1 449.457 0 0
 734 1 448.229 0.709 0
 735 1 448.229 2.127 0
 736 1 449.457 2.836 0
 737 1 451.913 0 0
 738 1 450.685 0.709 0
 739 1 450.685 2.127 0
 740 1 451.913 2.836 0
 741 1 454.369 0 0
 742 1 453.141 0.709 0
 743 1 453.141 2.127 0
 744 1 454.369 2.836 0
 745 1 456.825 0 0
 746 1 455.597 0.709 0
 747 1 455.597 2.127 0
 748 1 456.825 2.836 0
 749 1 459.281 0 0
 750 1 458.053 0.709 0
 751 1 458.053 2.127 0
 752 1 459.281 2.836 0
 753 1 461.737 0 0
 754 1 460.509 0.709 0
 755 1 460.509 2.127 0
 756 1 461.737 2.836 0
 757 1 464.193 0 0
 758 1 462.965 0.709 0
 759 1 462.965 2.127 0
 760 1 464.193 2.836 0
 761 1 466.649 0 0
 762 1 465.421 0.709 0
 763 1 465.421 2.127 0
 764 1 466.649 2.836 0
 765 1 469.105 0 0
 766 1 467.877 0.709 0
 767 1 467.877 2.127 0
 768 1 469.105 2.836 0
 769 1 471.561 0 0
 770 1 470.333 0.709 0
 771 1 470.333 2.127 0
 772 1 471.561 2.836 0
 773 1 474.017 0 0
 774 1 472.789 0.709 0
 775 1 472.789 2.127 0
 776 1 474.017 2.836 0
 777 1 476.473 0 0
 778 1 475.245 0.709 0
 779 1 475.245 2.127 0
 780 1 476.473 2.836 0
 781 1 478.929 0 0
 782 1 477.701 0.709 0
 783 1 477.701 2.127 0
 784 1 478.929 2.836 0
 785 1 481.385 0 0
 786 1 480.157 0.709 0
 787 1 480.157 2.127 0
 788 1 481.385 2.836 0
 789 1 483.841 0 0
 790 1 482.613 0.709 0
 791 1 482.613 2.127 0
 792 1 483.841 2.836 0
 793 1 486.298 0 0
 794 1 485.069 0.709 0
 795 1 485.069 2.127 0
 796 1 486.298 2.836 0
 797 1 488.754 0 0
 798 1 487.526 0.709 0
 799 1 487.526 2.127 0
 800 1 488.754 2.836 0
 801 1 491.21 0 0
 802 1 489.982 0.709 0
 803 1 489.982 2.127 0
 804 1 491.21 2.836 0
 805 1 493.666 0 0
 806 1 492.438 0.709 0
 807 1 492.438 2.127 0
 808 1 493.666 2.836 0
 809 1 496.122 0 0
 810 1 494.894 0.709 0
 811 1 494.894 2.127 0
 812 1 496.122 2.836 0
 813 1 498.578 0 0
 814 1 497.35 0.709 0
 815 1 497.35 2.127 0
 816 1 498.578 2.836 0
 817 1 501.034 0 0
 818 1 499.806 0.709 0
 819 1 499.806 2.127 0
 820 1 501.034 2.836 0
 821 1 503.49 0 0
 822 1 502.262 0.709 0
 823 1 502.262 2.127 0
 824 1 503.49 2.836 0
 825 1 505.946 0 0
 826 1 504.718 0.709 0
 827 1 504.718 2.127 0
 828 1 505.946 2.836 0
 829 1 508.402 0 0
 830 1 507.174 0.709 0
 831 1 507.174 2.127 0
 832 1 508.402 2.836 0
 833 1 510.858 0 0
 834 1 509.63 0.709 0
 835 1 509.63 2.127 0
 836 1 510.858 2.836 0
 837 1 513.314 0 0
 838 1 512.086 0.709 0
 839 1 512.086 2.127 0
 840 1 513.314 2.836 0
 841 1 515.77 0 0
 842 1 514.542 0.709 0
 843 1 514.542 2.127 0
 844 1 515.77 2.836 0
 845 1 518.226 0 0
 846 1 516.998 0.709 0
 847 1 516.998 2.127 0
 848 1 518.226 2.836 0
 849 1 520.682 0 0
 850 1 519.454 0.709 0
 851 1 519.454 2.127 0
 852 1 520.682 2.836 0
 853 1 523.138 0 0
 854 1 521.91 0.709 0
 855 1 521.91 2.127 0
 856 1 523.138 2.836 0
 857 1 525.594 0 0
 858 1 524.366 0.709 0
 859 1 524.366 2.127 0
 860 1 525.594 2.836 0
 861 1 528.05 0 0
 862 1 526.822 0.709 0
 863 1 526.822 2.127 0
 864 1 528.05 2.836 0
 865 1 530.506 0 0
 866 1 529.278 0.709 0
 867 1 529.278 2.127 0
 868 1 530.506 2.836 0
 869 1 532.962 0 0
 870 1 531.734 0.709 0
 871 1 531.734 2.127 0
 872 1 532.962 2.836 0
 873 1 535.418 0 0
 874 1 534.19 0.709 0
 875 1 534.19 2.127 0
 876 1 535.418 2.836 0
 877 1 537.875 0 0
 878 1 536.646 0.709 0
 879 1 536.646 2.127 0
 880 1 537.875 2.836 0
 881 1 540.331 0 0
 882 1 539.103 0.709 0
 883 1 539.103 2.127 0
 884 1 540.331 2.836 0
 885 1 542.787 0 0
 886 1 541.559 0.709 0
 887 1 541.559 2.127 0
 888 1 542.787 2.836 0
 889 1 545.243 0 0
 890 1 544.015 0.709 0
 891 1 544.015 2.127 0
 892 1 545.243 2.836 0
 893 1 547.699 0 0
 894 1 546.471 0.709 0
 895 1 546.471 2.127 0
 896 1 547.699 2.836 0
 897 1 550.155 0 0
 898 1 548.927 0.709 0
 899 1 548.927 2.127 0
 900 1 550.155 2.836 0
 901 1 552.611 0 0
 902 1 551.383 0.709 0
 903 1 551.383 2.127 0
 904 1 552.611 2.836 0
 905 1 555.067 0 0
 906 1 553.839 0.709 0
 907 1 553.839 2.127 0
 908 1 555.067 2.836 0
 909 1 557.523 0 0
 910 1 556.295 0.709 0
 911 1 556.295 2.127 0
 912 1 557.523 2.836 0
 913 1 559.979 0 0
 914 1 558.751 0.709 0
 915 1 558.751 2.127 0
 916 1 559.979 2.836 0
 917 1 562.435 0 0
 918 1 561.207 0.709 0
 919 1 561.207 2.127 0
 920 1 562.435 2.836 0
 921 1 564.891 0 0
 922 1 563.663 0.709 0
 923 1 563.663 2.127 0
 924 1 564.891 2.836 0
 925 1 567.347 0 0
 926 1 566.119 0.709 0
 927 1 566.119 2.127 0
 928 1 567.347 2.836 0
 929 1 569.803 0 0
 930 1 568.575 0.709 0
 931 1 568.575 2.127 0
 932 1 569.803 2.836 0
 933 1 572.259 0 0
 934 1 571.031 0.709 0
 935 1 571.031 2.127 0
 936 1 572.259 2.836 0
 937 1 574.715 0 0
 938 1 573.487 0.709 0
 939 1 573.487 2.127 0
 940 1 574.715 2.836 0
 941 1 577.171 0 0
 942 1 575.943 0.709 0
 943 1 575.943 2.127 0
 944 1 577.171 2.836 0
 945 1 579.627 0 0
 946 1 578.399 0.709 0
 947 1 578.399 2.127 0
 948 1 579.627 2.836 0
 949 1 582.083 0 0
 950 1 580.855 0.709 0
 951 1 580.855 2.127 0
 952 1 582.083 2.836 0
 953 1 584.539 0 0
 954 1 583.311 0.709 0
 955 1 583.311 2.127 0
 956 1 584.539 2.836 0
 957 1 586.995 0 0
 958 1 585.767 0.709 0
 959 1 585.767 2.127 0
 960 1 586.995 2.836 0
 961 1 589.452 0 0
 962 1 588.224 0.709 0
 963 1 588.224 2.127 0
 964 1 589.452 2.836 0
 965 1 591.908 0 0
 966 1 590.68 0.709 0
 967 1 590.68 2.127 0
 968 1 591.908 2.836 0
 969 1 594.364 0 0
 970 1 593.136 0.709 0
 971 1 593.136 2.127 0
 972 1 594.364 2.836 0
 973 1 596.82 0 0
 974 1 595.592 0.709 0
 975 1 595.592 2.127 0
 976 1 596.82 2.836 0
 977 1 599.276 0 0
 978 1 598.048 0.709 0
 979 1 598.048 2.127 0
 980 1 599.276 2.836 0
 981 1 0 4.254 0
 982 1 -1.22802 4.963 0
 983 1 -1.22802 6.381 0
 984 1 0 7.09 0
 985 1 2.45605 4.254 0
 986 1 1.22802 4.963 0
 987 1 1.22802 6.381 0
 988 1 2.45605 7.09 0
 989 1 4.9121 4.254 0
 990 1 3.68407 4.963 0
 991 1 3.68407 6.381 0
 992 1 4.9121 7.09 0
 993 1 7.36814 4.254 0
 994 1 6.14012 4.963 0
 995 1 6.14012 6.381 0
 996 1 7.36814 7.09 0
 997 1 9.82419 4.254 0
 998 1 8.59617 4.963 0
 999 1 8.59617 6.381 0
 1000 1 9.82419 7.09 0
 1001 1 12.2802 4.254 0
 1002 1 11.0522 4.963 0
 1003 1 11.0522 6.381 0
 1004 1 12.2802 7.09 0
 1005 1 14.7363 4.254 0
 1006 1 13.5083 4.963 0
 1007 1 13.5083 6.381 0
 1008 1 14.7363 7.09 0
 1009 1 17.1923 4.254 0
 1010 1 15.9643 4.963 0
 1011 1 15.9643 6.381 0
 1012 1 17.1923 7.09 0
 1013 1 19.6484 4.254 0
 1014 1 18.4204 4.963 0
 1015 1 18.4204 6.381 0
 1016 1 19.6484 7.09 0
 1017 1 22.1044 4.254 0
 1018 1 20.8764 4.963 0
 1019 1 20.8764 6.381 0
 1020 1 22.1044 7.09 0
 1021 1 24.5605 4.254 0
 1022 1 23.3325 4.963 0
 1023 1 23.3325 6.381 0
 1024 1 24.5605 7.09 0
 1025 1 27.0165 4.254 0
 1026 1 25.7885 4.963 0
 1027 1 25.7885 6.381 0
 1028 1 27.0165 7.09 0
 1029 1 29.4726 4.254 0
 1030 1 28.2446 4.963 0
 1031 1 28.2446 6.381 0
 1032 1 29.4726 7.09 0
 1033 1 31.9286 4.254 0
 1034 1 30.7006 4.963 0
 1035 1 30.7006 6.381 0
 1036 1 31.9286 7.09 0
 1037 1 34.3847 4.254 0
 1038 1 33.1566 4.963 0
 1039 1 33.1566 6.381 0
 1040 1 34.3847 7.09 0
 1041 1 36.8407 4.254 0
 1042 1 35.6127 4.963 0
 1043 1 35.6127 6.381 0
 1044 1 36.8407 7.09 0
 1045 1 39.2968 4.254 0
 1046 1 38.0687 4.963 0
 1047 1 38.0687 6.381 0
 1048 1 39.2968 7.09 0
 1049 1 41.7528 4.254 0
 1050 1 40.5248 4.963 0
 1051 1 40.5248 6.381 0
 1052 1 41.7528 7.09 0
 1053 1 44.2089 4.254 0
 1054 1 42.9808 4.963 0
 1055 1 42.9808 6.381 0
 1056 1 44.2089 7.09 0
 1057 1 46.6649 4.254 0
 1058 1 45.4369 4.963 0
 1059 1 45.4369 6.381 0
 1060 1 46.6649 7.09 0
 1061 1 49.121 4.254 0
 1062 1 47.8929 4.963 0
 1063 1 47.8929 6.381 0
 1064 1 49.121 7.09 0
 1065 1 51.577 4.254 0
 1066 1 50.349 4.963 0
 1067 1 50.349 6.381 0
 1068 1 51.577 7.09 0
 1069 1 54.0331 4.254 0
 1070 1 52.805 4.963 0
 1071 1 52.805 6.381 0
 1072 1 54.0331 7.09 0
 1073 1 56.4891 4.254 0
 1074 1 55.2611 4.963 0
 1075 1 55.2611 6.381 0
 1076 1 56.4891 7.09 0
 1077 1 58.9452 4.254 0
 1078 1 57.7171 4.963 0
 1079 1 57.7171 6.381 0
 1080 1 58.9452 7.09 0
 1081 1 61.4012 4.254 0
 1082 1 60.1732 4.963 0
 1083 1 60.1732 6.381 0
 1084 1 61.4012 7.09 0
 1085 1 63.8573 4.254 0
 1086 1 62.6292 4.963 0
 1087 1 62.6292 6.381 0
 1088 1 63.8573 7.09 0
 1089 1 66.3133 4.254 0
 1090 1 65.0853 4.963 0
 1091 1 65.0853 6.381 0
 1092 1 66.3133 7.09 0
 1093 1 68.7693 4.254 0
 1094 1 67.5413 4.963 0
 1095 1 67.5413 6.381 0
 1096 1 68.7693 7.09 0
 1097 1 71.2254 4.254 0
 1098 1 69.9974 4.963 0
 1099 1 69.9974 6.381 0
 1100 1 71.2254 7.09 0
 1101 1 73.6814 4.254 0
 1102 1 72.4534 4.963 0
 1103 1 72.4534 6.381 0
 1104 1 73.6814 7.09 0
 1105 1 76.1375 4.254 0
 1106 1 74.9095 4.963 0
 1107 1 74.9095 6.381 0
 1108 1 76.1375 7.09 0
 1109 1 78.5935 4.254 0
 1110 1 77.3655 4.963 0
 1111 1 77.3655 6.381 0
 1112 1 78.5935 7.09 0
 1113 1 81.0496 4.254 0
 1114 1 79.8216 4.963 0
 1115 1 79.8216 6.381 0
 1116 1 81.0496 7.09 0
 1117 1 83.5056 4.254 0
 1118 1 82.2776 4.963 0
 1119 1 82.2776 6.381 0
 1120 1 83.5056 7.09 0
 1121 1 85.9617 4.254 0
 1122 1 84.7337 4.963 0
 1123 1 84.7337 6.381 0
 1124 1 85.9617 7.09 0
 1125 1 88.4177 4.254 0
 1126 1 87.1897 4.963 0
 1127 1 87.1897 6.381 0
 1128 1 88.4177 7.09 0
 1129 1 90.8738 4.254 0
 1130 1 89.6458 4.963 0
 1131 1 89.6458 6.381 0
 1132 1 90.8738 7.09 0
 1133 1 93.3298 4.254 0
 1134 1 92.1018 4.963 0
 1135 1 92.1018 6.381 0
 1136 1 93.3298 7.09 0
 1137 1 95.7859 4.254 0
 1138 1 94.5578 4.963 0
 1139 1 94.5578 6.381 0
 1140 1 95.7859 7.09 0
 1141 1 98.2419 4.254 0
 1142 1 97.0139 4.963 0
 1143 1 97.0139 6.381 0
 1144 1 98.2419 7.09 0
 1145 1 100.698 4.254 0
 1146 1 99.4699 4.963 0
 1147 1 99.4699 6.381 0
 1148 1 100.698 7.09 0
 1149 1 103.154 4.254 0
 1150 1 101.926 4.963 0
 1151 1 101.926 6.381 0
 1152 1 103.154 7.09 0
 1153 1 105.61 4.254 0
 1154 1 104.382 4.963 0
 1155 1 104.382 6.381 0
 1156 1 105.61 7.09 0
 1157 1 108.066 4.254 0
 1158 1 106.838 4.963 0
 1159 1 106.838 6.381 0
 1160 1 108.066 7.09 0
 1161 1 110.522 4.254 0
 1162 1 109.294 4.963 0
 1163 1 109.294 6.381 0
 1164 1 110.522 7.09 0
 1165 1 112.978 4.254 0
 1166 1 111.75 4.963 0
 1167 1 111.75 6.381 0
 1168 1 112.978 7.09 0
 1169 1 115.434 4.254 0
 1170 1 114.206 4.963 0
 1171 1 114.206 6.381 0
 1172 1 115.434 7.09 0
 1173 1 117.89 4.254 0
 1174 1 116.662 4.963 0
 1175 1 116.662 6.381 0
 1176 1 117.89 7.09 0
 1177 1 120.346 4.254 0
 1178 1 119.118 4.963 0
 1179 1 119.118 6.381 0
 1180 1 120.346 7.09 0
 1181 1 122.802 4.254 0
 1182 1 121.574 4.963 0
 1183 1 121.574 6.381 0
 1184 1 122.802 7.09 0
 1185 1 125.258 4.254 0
 1186 1 124.03 4.963 0
 1187 1 124.03 6.381 0
 1188 1 125.258 7.09 0
 1189 1 127.715 4.254 0
 1190 1 126.486 4.963 0
 1191 1 126.486 6.381 0
 1192 1 127.715 7.09 0
 1193 1 130.171 4.254 0
 1194 1 128.943 4.963 0
 1195 1 128.943 6.381 0
 1196 1 130.171 7.09 0
 1197 1 132.627 4.254 0
 1198 1 131.399 4.963 0
 1199 1 131.399 6.381 0
 1200 1 132.627 7.09 0
 1201 1 135.083 4.254 0
 1202 1 133.855 4.963 0
 1203 1 133.855 6.381 0
 1204 1 135.083 7.09 0
 1205 1 137.539 4.254 0
 1206 1 136.311 4.963 0
 1207 1 136.311 6.381 0
 1208 1 137.539 7.09 0
 1209 1 139.995 4.254 0
 1210 1 138.767 4.963 0
 1211 1 138.767 6.381 0
 1212 1 139.995 7.09 0
 1213 1 142.451 4.254 0
 1214 1 141.223 4.963 0
 1215 1 141.223 6.381 0
 1216 1 142.451 7.09 0
 1217 1 144.907 4.254 0
 1218 1 143.679 4.963 0
 1219 1 143.679 6.381 0
 1220 1 144.907 7.09 0
 1221 1 147.363 4.254 0
 1222 1 146.135 4.963 0
 1223 1 146.135 6.381 0
 1224 1 147.363 7.09 0
 1225 1 149.819 4.254 0
 1226 1 148.591 4.963 0
 1227 1 148.591 6.381 0
 1228 1 149.819 7.09 0
 1229 1 152.275 4.254 0
 1230 1 151.047 4.963 0
 1231 1 151.047 6.381 0
 1232 1 152.275 7.09 0
 1233 1 154.731 4.254 0
 1234 1 153.503 4.963 0
 1235 1 153.503 6.381 0
 1236 1 154.731 7.09 0
 1237 1 157.187 4.254 0
 1238 1 155.959 4.963 0
 1239 1 155.959 6.381 0
 1240 1 157.187 7.09 0
 1241 1 159.643 4.254 0
 1242 1 158.415 4.963 0
 1243 1 158.415 6.381 0
 1244 1 159.643 7.09 0
 1245 1 162.099 4.254 0
 1246 1 160.871 4.963 0
 1247 1 160.871 6.381 0
 1248 1 162.099 7.09 0
 1249 1 164.555 4.254 0
 1250 1 163.327 4.963 0
 1251 1 163.327 6.381 0
 1252 1 164.555 7.09 0
 1253 1 167.011 4.254 0
 1254 1 165.783 4.963 0
 1255 1 165.783 6.381 0
 1256 1 167.011 7.09 0
 1257 1 169.467 4.254 0
 1258 1 168.239 4.963 0
 1259 1 168.239 6.381 0
 1260 1 169.467 7.09 0
 1261 1 171.923 4.254 0
 1262 1 170.695 4.963 0
 1263 1 170.695 6.381 0
 1264 1 171.923 7.09 0
 1265 1 174.379 4.254 0
 1266 1 173.151 4.963 0
 1267 1 173.151 6.381 0
 1268 1 174.379 7.09 0
 1269 1 176.835 4.254 0
 1270 1 175.607 4.963 0
 1271 1 175.607 6.381 0
 1272 1 176.835 7.09 0
 1273 1 179.292 4.254 0
 1274 1 178.063 4.963 0
 1275 1 178.063 6.381 0
 1276 1 179.292 7.09 0
 1277 1 181.748 4.254 0
 1278 1 180.52 4.963 0
 1279 1 180.52 6.381 0
 1280 1 181.748 7.09 0
 1281 1 184.204 4.254 0
 1282 1 182.976 4.963 0
 1283 1 182.976 6.381 0
 1284 1 184.204 7.09 0
 1285 1 186.66 4.254 0
 1286 1 185.432 4.963 0
 1287 1 185.432 6.381 0
 1288 1 186.66 7.09 0
 1289 1 189.116 4.254 0
 1290 1 187.888 4.963 0
 1291 1 187.888 6.381 0
 1292 1 189.116 7.09 0
 1293 1 191.572 4.254 0
 1294 1 190.344 4.963 0
 1295 1 190.344 6.381 0
 1296 1 191.572 7.09 0
 1297 1 194.028 4.254 0
 1298 1 192.8 4.963 0
 1299 1 192.8 6.381 0
 1300 1 194.028 7.09 0
 1301 1 196.484 4.254 0
 1302 1 195.256 4.963 0
 1303 1 195.256 6.381 0
 1304 1 196.484 7.09 0
 1305 1 198.94 4.254 0
 1306 1 197.712 4.963 0
 1307 1 197.712 6.381 0
 1308 1 198.94 7.09 0
 1309 1 201.396 4.254 0
 1310 1 200.168 4.963 0
 1311 1 200.168 6.381 0
 1312 1 201.396 7.09 0
 1313 1 203.852 4.254 0
 1314 1 202.624 4.963 0
 1315 1 202.624 6.381 0
 1316 1 203.852 7.09 0
 1317 1 206.308 4.254 0
 1318 1 205.08 4.963 0
 1319 1 205.08 6.381 0
 1320 1 206.308 7.09 0
 1321 1 208.764 4.254 0
 1322 1 207.536 4.963 0
 1323 1 207.536 6.381 0
 1324 1 208.764 7.09 0
 1325 1 211.22 4.254 0
 1326 1 209.992 4.963 0
 1327 1 209.992 6.381 0
 1328 1 211.22 7.09 0
 1329 1 213.676 4.254 0
 1330 1 212.448 4.963 0
 1331 1 212.448 6.381 0
 1332 1 213.676 7.09 0
 1333 1 216.132 4.254 0
 1334 1 214.904 4.963 0
 1335 1 214.904 6.381 0
 1336 1 216.132 7.09 0
 1337 1 218.588 4.254 0
 1338 1 217.36 4.963 0
 1339 1 217.36 6.381 0
 1340 1 218.588 7.09 0
 1341 1 221.044 4.254 0